% Model:              Assignment3.mph
% Version:            COMSOL 6.0.0.405
% Date:               Oct 17 2022, 17:44
% Dimension:          2
% Nodes:              57
% Expressions:        1
% Description:        Dependent variable u
% Length unit:        m
% X                       Y                        u (m)
0                         20                       18
4.0928019767971255        20                       17.706012925095923
8.261806327880931         20                       17.40683323606055
8.299106423150901         20                       17.40415875658371
33.95029151444608         20                       15.708105358762463
35                        20                       15.68285096581076
8.337433849242649         20                       17.40141088202376
12.596014710172394        20                       17.096550483664004
32.80524790064524         20                       15.75358462621784
32.09998800036965         20                       15.787467739282263
32.375623868954946        20                       15.773882407227887
16.70224896950095         20                       16.804083050268993
16.89574711533592         20                       16.790353315686122
17.078799253296218        20                       16.777385208164983
30.73867806917738         20                       15.860766774265759
29.11645050850546         20                       15.957471795936595
25.22142261729373         20                       16.210762619895505
25.455783963713984        20                       16.195028673345437
26.01983363000012         20                       16.157214695533586
28.38093093395031         20                       16.003398565940337
21.384335299987654        20                       16.47436984446344
45                        20                       14.317150402090293
46.35593326762199         20                       14.281062056727059
47.66925039253209         20                       14.223963501197094
47.768622143990804        20                       14.219079470609476
47.89429878262758         20                       14.212772521223052
49.29431175519582         20                       14.13731201521707
50.298991629634024        20                       14.078288673920502
51.06517807077728         20                       14.031328494150845
51.499883410023266        20                       14.004185421939567
52.72642010427778         20                       13.925326128405878
54.38244328263426         20                       13.81576889412053
55.76357279605922         20                       13.722524166592862
58.912884182099035        20                       13.504890497906642
62.990370761605035        20                       13.217717978559197
63.26299108243951         20                       13.198386917732709
63.536111584883656        20                       13.178999443145589
67.51483701033513         20                       12.895528599300345
71.44013826325578         20                       12.61453575468583
71.71804843333342         20                       12.594611771573373
71.97735636139481         20                       12.576017923643281
75.88363513079466         20                       12.295679184155166
80                        20                       12
36.087076089620936        20                       15.534367281279856
36.89157221582897         20                       15.424545821123846
37.26339039910972         20                       15.373778388313879
37.68831307857959         20                       15.315753134971798
38.57247377659306         20                       15.194997211935357
39.89088627167658         20                       15.014905851325258
40.077292650728786        20                       14.989441916370684
40.54269606833997         20                       14.925867090285772
41.61938414196222         20                       14.778799045594942
40.16446806526951         20                       14.977534090994787
41.93163182612241         20                       14.736153058076711
42.90583355697669         20                       14.603116845416825
43.42514688223852         20                       14.532218149757846
43.9408762349126          20                       14.461820298226598
